
Predictions were generated on 02-Jan-2017 at 18:54:47 using FAST (v8.12.00a-bjj, 6-Oct-2015), compiled as a 32-bit application using single precision
 linked with  NWTC Subroutine Library (v2.06.05a-bjj, 5-Oct-2015); ElastoDyn (v1.03.00a-bjj, 5-Oct-2015); BeamDyn (v1.00.00, 5-Oct-2015); InflowWind (v3.01.00a-adp, 5-Oct-2015); AeroDyn (v15.00.00b-bjj, 6-Oct-2015); ServoDyn (v1.03.01a-bjj, 5-Oct-2015)

Description from the FAST input file: FAST Certification Test #26: NREL 5.0 MW Baseline Wind Turbine (Onshore)

Time      	Wind1VelX 	Wind1VelY 	Wind1VelZ 	BldPitch1 	RotSpeed  	GenSpeed  	RotTorq   	B1RootFxr 	B1RootFyr 	B1RootFzr 	B1RootMxr 	B1RootMyr 	B1RootMzr 	B1TipTDxr 	B1TipTDyr 	B1TipTDzr 	B1TipRDxr 	B1TipRDyr 	B1TipRDzr 	B2RootFxr 	B2RootFyr 	B2RootFzr 	B2RootMxr 	B2RootMyr 	B2RootMzr 	B2TipTDxr 	B2TipTDyr 	B2TipTDzr 	B2TipRDxr 	B2TipRDyr 	B2TipRDzr 	B3RootFxr 	B3RootFyr 	B3RootFzr 	B3RootMxr 	B3RootMyr 	B3RootMzr 	B3TipTDxr 	B3TipTDyr 	B3TipTDzr 	B3TipRDxr 	B3TipRDyr 	B3TipRDzr 	RtSpeed   	RtSkew    	B1Azimuth 	B1N1Theta 	B1N2Theta 	B1N3Theta 	B1N1VDisx 	B1N1VDisy 	B1N1VDisz 	B1N2VDisx 	B1N2VDisy 	B1N2VDisz 	B1N3VDisx 	B1N3VDisy 	B1N3VDisz 	B1N1STVx  	B1N1STVy  	B1N1STVz  	B1N2STVx  	B1N2STVy  	B1N2STVz  	B1N3STVx  	B1N3STVy  	B1N3STVz  	B1N1AxInd 	B1N2AxInd 	B1N3AxInd 	B1N1Alpha 	B1N2Alpha 	B1N3Alpha 	GenPwr    	GenTq     
(s)       	(m/s)     	(m/s)     	(m/s)     	(deg)     	(rpm)     	(rpm)     	(kN·m)    	(N)       	(N)       	(N)       	(N-m)     	(N-m)     	(N-m)     	(m)       	(m)       	(m)       	(-)       	(-)       	(-)       	(N)       	(N)       	(N)       	(N-m)     	(N-m)     	(N-m)     	(m)       	(m)       	(m)       	(-)       	(-)       	(-)       	(N)       	(N)       	(N)       	(N-m)     	(N-m)     	(N-m)     	(m)       	(m)       	(m)       	(-)       	(-)       	(-)       	(rpm)     	(deg)     	(deg)     	(deg)     	(deg)     	(deg)     	(m/s)     	(m/s)     	(m/s)     	(m/s)     	(m/s)     	(m/s)     	(m/s)     	(m/s)     	(m/s)     	(m/s)     	(m/s)     	(m/s)     	(m/s)     	(m/s)     	(m/s)     	(m/s)     	(m/s)     	(m/s)     	(-)       	(-)       	(-)       	(deg)     	(deg)     	(deg)     	(kW)      	(kN·m)    
    0.0000	 1.162E+01	 1.788E-02	-2.976E-01	 0.000E+00	 1.210E+01	 1.174E+03	-9.910E-09	 4.446E+01	 2.400E+01	-8.087E+03	-5.655E+00	-1.294E+02	 2.311E+02	-1.107E-07	-2.204E-14	-4.932E-15	 4.449E-16	-1.801E-09	-6.664E-17	 9.938E+02	-9.051E+03	 7.810E+03	-1.340E+02	 7.089E+01	 1.590E+02	 1.642E-07	 1.168E-06	-2.727E-14	-1.899E-08	 2.671E-09	 3.700E-09	 8.864E+02	 9.358E+03	 7.842E+03	 1.558E+02	 2.403E+01	 4.000E+02	 1.642E-07	-1.168E-06	-1.736E-14	 1.899E-08	 2.671E-09	-3.700E-09	 1.210E+01	 4.765E+00	 1.045E+02	-1.223E-02	-1.355E-02	 1.060E-01	 1.211E+01	 9.224E-02	-2.411E-01	 1.337E+01	 1.205E+00	-1.250E-01	 1.434E+01	 2.520E-01	-1.326E+00	 0.000E+00	 0.000E+00	 0.000E+00	 0.000E+00	 0.000E+00	 0.000E+00	 0.000E+00	 0.000E+00	 0.000E+00	 0.000E+00	 0.000E+00	 0.000E+00	 8.958E+01	 8.486E+01	 8.889E+01	 0.000E+00	 0.000E+00
    0.0010	 1.163E+01	 1.776E-02	-3.038E-01	 0.000E+00	 1.210E+01	 1.174E+03	-2.693E-02	 1.301E+03	-5.072E+03	-4.832E+03	-7.568E+05	 6.030E+02	 7.758E+03	 4.025E-06	 2.048E-04	 4.467E-05	 4.259E-05	-1.086E-05	 5.187E-06	 9.901E+02	-1.643E+04	 4.394E+04	-7.486E+05	 1.459E+03	 8.124E+03	 3.967E-06	 1.996E-04	 5.209E-05	 4.347E-05	-1.140E-05	 6.882E-06	 1.474E+03	 7.098E+03	 4.343E+04	-7.650E+05	 1.508E+03	 7.060E+03	 4.574E-06	 2.104E-04	 5.225E-05	 4.179E-05	-9.169E-06	 4.712E-06	 1.210E+01	 4.798E+00	 1.060E+02	 1.330E+01	 7.792E+00	 1.028E-01	 1.211E+01	 9.416E-02	 2.707E-01	 1.334E+01	 1.250E+00	 5.220E-01	 1.438E+01	 2.526E-01	-6.994E-01	 1.050E-04	-1.899E+00	 2.404E-03	-2.546E-02	-3.563E+01	-5.831E-01	-5.396E-03	-7.975E+01	-1.236E-01	 0.000E+00	 2.440E-01	 0.000E+00	-1.330E+01	 7.210E+00	-1.028E-01	 0.000E+00	 0.000E+00
