
FAST Summary File

Predictions were generated on 08-Oct-2015 at 00:13:27 using FAST (v8.12.00a-bjj, 6-Oct-2015), compiled as a 32-bit application using single precision
  compiled with
    NWTC Subroutine Library (v2.06.05a-bjj, 5-Oct-2015)
    ElastoDyn (v1.03.00a-bjj, 5-Oct-2015)
    BeamDyn (unknown version, unknown date) [not called]
    InflowWind (v3.01.00a-adp, 5-Oct-2015)
    AeroDyn14 (v14.04.00a-bjj, 6-Oct-2015)
    AeroDyn (unknown version, unknown date) [not called]
    ServoDyn (v1.03.01a-bjj, 5-Oct-2015)
    HydroDyn (unknown version, unknown date) [not called]
    SubDyn (unknown version, unknown date) [not called]
    MAP (unknown version, unknown date) [not called]
    FEAMooring (unknown version, unknown date) [not called]
    MoorDyn (unknown version, unknown date) [not called]
    OrcaFlexInterface (unknown version, unknown date) [not called]
    IceFloe (unknown version, unknown date) [not called]
    IceDyn (unknown version, unknown date) [not called]


Modeling a land-based turbine
Description from the FAST input file: 
  FAST Certification Test #15: SWRT 3-bladed upwind turbine with many DOFs, variable speed control, free yaw, tail-furl, EOG01 event

Interpolation order for input/output time histories: 2 (quadratic)
Number of correction iterations:  0


   Requested Time Steps  
  -------------------------------------------------
  Component          Time Step (s)    Subcycles (-)
  -----------------  ---------------  -------------
  FAST (glue code)    1.000E-03
  InflowWind          1.000E-03              1
  ElastoDyn           1.000E-03              1
  AeroDyn14           1.000E-03              1
  ServoDyn            1.000E-03              1
  FAST output files   8.000E-03              8^-1


   Requested Channels in FAST Output File(s)  
  --------------------------------------------
  Number  Name        Units       Generated by
  ------  ----------  ----------  ------------
       1  Time        (s)         FAST
       2  Wind1VelX   (m/s)       InflowWind
       3  Wind1VelY   (m/s)       InflowWind
       4  Wind1VelZ   (m/s)       InflowWind
       5  TipClrnc1   (m)         ElastoDyn
       6  TipClrnc2   (m)         ElastoDyn
       7  TipClrnc3   (m)         ElastoDyn
       8  RotSpeed    (rpm)       ElastoDyn
       9  TailFurlP   (deg)       ElastoDyn
      10  TailFurlV   (deg/s)     ElastoDyn
      11  TailFurlA   (deg/s^2)   ElastoDyn
      12  NacYawP     (deg)       ElastoDyn
      13  RotThrust   (kN)        ElastoDyn
      14  TFrlBrM     (kN·m)      ElastoDyn
