
FAST Summary File

Predictions were generated on 30-Dec-2016 at 12:51:17 using FAST (v8.12.00a-bjj, 6-Oct-2015), compiled as a 32-bit application using single precision
  compiled with
    NWTC Subroutine Library (v2.06.05a-bjj, 5-Oct-2015)
    ElastoDyn (v1.03.00a-bjj, 5-Oct-2015)
    BeamDyn (v1.00.00, 5-Oct-2015)
    InflowWind (v3.01.00a-adp, 5-Oct-2015)
    AeroDyn14 (unknown version, unknown date) [not called]
    AeroDyn (v15.00.00b-bjj, 6-Oct-2015)
    ServoDyn (v1.03.01a-bjj, 5-Oct-2015)
    HydroDyn (unknown version, unknown date) [not called]
    SubDyn (unknown version, unknown date) [not called]
    MAP (unknown version, unknown date) [not called]
    FEAMooring (unknown version, unknown date) [not called]
    MoorDyn (unknown version, unknown date) [not called]
    OrcaFlexInterface (unknown version, unknown date) [not called]
    IceFloe (unknown version, unknown date) [not called]
    IceDyn (unknown version, unknown date) [not called]


Modeling a land-based turbine
Description from the FAST input file: 
  FAST Certification Test #26: NREL 5.0 MW Baseline Wind Turbine (Onshore)

Interpolation order for input/output time histories: 2 (quadratic)
Number of correction iterations:  0
Number of rows in Jacobian matrix used for coupling ElastoDyn, SubDyn, HydroDyn, OrcaFlex, and/or BeamDyn:     24


   Requested Time Steps  
  -------------------------------------------------
  Component          Time Step (s)    Subcycles (-)
  -----------------  ---------------  -------------
  FAST (glue code)    1.000E-03
  InflowWind          1.000E-03              1
  ElastoDyn           1.000E-03              1
  BeamDyn             1.000E-03              1
  AeroDyn             1.000E-03              1
  ServoDyn            1.000E-03              1
  FAST output files   1.000E-03              1


   Requested Channels in FAST Output File(s)  
  --------------------------------------------
  Number  Name        Units       Generated by
  ------  ----------  ----------  ------------
       1  Time        (s)         FAST
       2  Wind1VelX   (m/s)       InflowWind
       3  Wind1VelY   (m/s)       InflowWind
       4  Wind1VelZ   (m/s)       InflowWind
       5  BldPitch1   (deg)       ElastoDyn
       6  Azimuth     (deg)       ElastoDyn
       7  RotSpeed    (rpm)       ElastoDyn
       8  GenSpeed    (rpm)       ElastoDyn
       9  TTDspFA     (m)         ElastoDyn
      10  TTDspSS     (m)         ElastoDyn
      11  TTDspTwst   (deg)       ElastoDyn
      12  RotTorq     (kN·m)      ElastoDyn
      13  LSSGagMya   (kN·m)      ElastoDyn
      14  LSSGagMza   (kN·m)      ElastoDyn
      15  YawBrFxp    (kN)        ElastoDyn
      16  YawBrFyp    (kN)        ElastoDyn
      17  YawBrFzp    (kN)        ElastoDyn
      18  YawBrMxp    (kN·m)      ElastoDyn
      19  YawBrMyp    (kN·m)      ElastoDyn
      20  YawBrMzp    (kN·m)      ElastoDyn
      21  TwrBsFxt    (kN)        ElastoDyn
      22  TwrBsFyt    (kN)        ElastoDyn
      23  TwrBsFzt    (kN)        ElastoDyn
      24  TwrBsMxt    (kN·m)      ElastoDyn
      25  TwrBsMyt    (kN·m)      ElastoDyn
      26  TwrBsMzt    (kN·m)      ElastoDyn
      27  B1RootFxr   (N)         BeamDyn
      28  B1RootFyr   (N)         BeamDyn
      29  B1RootFzr   (N)         BeamDyn
      30  B1RootMxr   (N-m)       BeamDyn
      31  B1RootMyr   (N-m)       BeamDyn
      32  B1RootMzr   (N-m)       BeamDyn
      33  B1TipTDxr   (m)         BeamDyn
      34  B1TipTDyr   (m)         BeamDyn
      35  B1TipTDzr   (m)         BeamDyn
      36  B1TipRDxr   (-)         BeamDyn
      37  B1TipRDyr   (-)         BeamDyn
      38  B1TipRDzr   (-)         BeamDyn
      39  B2RootFxr   (N)         BeamDyn
      40  B2RootFyr   (N)         BeamDyn
      41  B2RootFzr   (N)         BeamDyn
      42  B2RootMxr   (N-m)       BeamDyn
      43  B2RootMyr   (N-m)       BeamDyn
      44  B2RootMzr   (N-m)       BeamDyn
      45  B2TipTDxr   (m)         BeamDyn
      46  B2TipTDyr   (m)         BeamDyn
      47  B2TipTDzr   (m)         BeamDyn
      48  B2TipRDxr   (-)         BeamDyn
      49  B2TipRDyr   (-)         BeamDyn
      50  B2TipRDzr   (-)         BeamDyn
      51  B3RootFxr   (N)         BeamDyn
      52  B3RootFyr   (N)         BeamDyn
      53  B3RootFzr   (N)         BeamDyn
      54  B3RootMxr   (N-m)       BeamDyn
      55  B3RootMyr   (N-m)       BeamDyn
      56  B3RootMzr   (N-m)       BeamDyn
      57  B3TipTDxr   (m)         BeamDyn
      58  B3TipTDyr   (m)         BeamDyn
      59  B3TipTDzr   (m)         BeamDyn
      60  B3TipRDxr   (-)         BeamDyn
      61  B3TipRDyr   (-)         BeamDyn
      62  B3TipRDzr   (-)         BeamDyn
      63  RtSpeed     (rpm)       AeroDyn
      64  RtSkew      (deg)       AeroDyn
      65  B1Azimuth   (deg)       AeroDyn
      66  B1N1Theta   (deg)       AeroDyn
      67  B1N2Theta   (deg)       AeroDyn
      68  B1N3Theta   (deg)       AeroDyn
      69  B1N1VDisx   (m/s)       AeroDyn
      70  B1N1VDisy   (m/s)       AeroDyn
      71  B1N1VDisz   (m/s)       AeroDyn
      72  B1N2VDisx   (m/s)       AeroDyn
      73  B1N2VDisy   (m/s)       AeroDyn
      74  B1N2VDisz   (m/s)       AeroDyn
      75  B1N3VDisx   (m/s)       AeroDyn
      76  B1N3VDisy   (m/s)       AeroDyn
      77  B1N3VDisz   (m/s)       AeroDyn
      78  B1N1STVx    (m/s)       AeroDyn
      79  B1N1STVy    (m/s)       AeroDyn
      80  B1N1STVz    (m/s)       AeroDyn
      81  B1N2STVx    (m/s)       AeroDyn
      82  B1N2STVy    (m/s)       AeroDyn
      83  B1N2STVz    (m/s)       AeroDyn
      84  B1N3STVx    (m/s)       AeroDyn
      85  B1N3STVy    (m/s)       AeroDyn
      86  B1N3STVz    (m/s)       AeroDyn
      87  B1N1AxInd   (-)         AeroDyn
      88  B1N2AxInd   (-)         AeroDyn
      89  B1N3AxInd   (-)         AeroDyn
      90  B1N1Alpha   (deg)       AeroDyn
      91  B1N2Alpha   (deg)       AeroDyn
      92  B1N3Alpha   (deg)       AeroDyn
      93  GenPwr      (kW)        ServoDyn
      94  GenTq       (kN·m)      ServoDyn
